<?xml version="1.0" encoding="UTF-8" standalone="no"?>
<?xml-stylesheet type="text/xsl" href="pdfcard.xsl"?><pdfcard>
<pdf_data ApplicationName="PDF-4+ 2020" ApplicationVersion="4.20.0.1" CurrentYear="2019">
<pdf_number>00-034-0187</pdf_number>
<chemical_formula>V2 O3</chemical_formula>
<empirical_formula>O3 V2</empirical_formula>
<chemical_name>Vanadium Oxide</chemical_name>
<mineral_name>Karelianite, syn</mineral_name>
<common_name>karelianite</common_name>
<xstal_system>Rhombohedral</xstal_system>
<xtldx>5.016</xtldx>
<dm>4.87</dm>
<rep_struc>Al2 O3</rep_struc>
<rep_struc_alpha_order>Al2 O3</rep_struc_alpha_order>
<lpf_rep_struc>Al2 O3,hR30,167</lpf_rep_struc>
<lpf_rep_struc_alpha_order>Al2 O3,hR30,167</lpf_rep_struc_alpha_order>
<pressure_temperature>Ambient</pressure_temperature>
<cas>1314-34-7</cas>
<status>Primary</status>
<cell_a>4.9540(2)</cell_a>
<cell_c>14.0083(10)</cell_c>
<z>6.00</z>
<cell_vol>297.73</cell_vol>
<cell_mv>49.62</cell_mv>
<authcovera>2.828</authcovera>
<xtlvol>297.73</xtlvol>
<redcellvol>99.24</redcellvol>
<xtla>4.954</xtla>
<xtlb>4.954</xtlb>
<xtlc>14.008</xtlc>
<xtlal>90.00</xtlal>
<xtlbe>90.00</xtlbe>
<xtlga>120.00</xtlga>
<xtlcovera>2.828</xtlcovera>
<xtlaoverb>1.000</xtlaoverb>
<xtlcoverb>2.828</xtlcoverb>
<redcell_a>4.954</redcell_a>
<redcell_b>4.954</redcell_b>
<redcell_c>5.476</redcell_c>
<redcell_al>63.10</redcell_al>
<redcell_be>63.10</redcell_be>
<redcell_ga>60.00</redcell_ga>
<xtlz>6.00</xtlz>
<ss>F(30) = 64.6(0.0097, 48)</ss>
<xtlsg>R-3c (167)</xtlsg>
<xtlmolwt>149.88</xtlmolwt>
<quality_mark>Star</quality_mark>
<lower>22.10</lower>
<filttyp>Graph Mono</filttyp>
<lambda>1.5406</lambda>
<patrad>CuKα1</patrad>
<source>Diffractometer - Peak</source>
<instrument>Diffractometer</instrument>
<internal_standard>W</internal_standard>
<temperature>298.0</temperature>
<melting_points>2243 K</melting_points>
<aspectn>167</aspectn>
<spgr_label>Space Group</spgr_label>
<spgr>R-3c (167)</spgr>
<color>Black</color>
<pearson>hR10.00</pearson>
<pdf_minclass>Corundum (supergroup), corundum (group)</pdf_minclass>
<entry_date>09/01/1984</entry_date>
<weight_percent>O32.02 V67.98</weight_percent>
<atomic_percent>O60.00 V40.00</atomic_percent>
<structure_info>Atomic parameters are cross-referenced from PDF entry 04-006-5885</structure_info>
<sg_sym_ops>
<sg_sym_op>
<seq>1</seq>
<operator>x,y,z</operator>
</sg_sym_op>
<sg_sym_op>
<seq>2</seq>
<operator>-x,-y,-z</operator>
</sg_sym_op>
<sg_sym_op>
<seq>3</seq>
<operator>-y,x-y,z</operator>
</sg_sym_op>
<sg_sym_op>
<seq>4</seq>
<operator>y,-x+y,-z</operator>
</sg_sym_op>
<sg_sym_op>
<seq>5</seq>
<operator>-x+y,-x,z</operator>
</sg_sym_op>
<sg_sym_op>
<seq>6</seq>
<operator>x-y,x,-z</operator>
</sg_sym_op>
<sg_sym_op>
<seq>7</seq>
<operator>-y,-x,z+1/2</operator>
</sg_sym_op>
<sg_sym_op>
<seq>8</seq>
<operator>y,x,-z+1/2</operator>
</sg_sym_op>
<sg_sym_op>
<seq>9</seq>
<operator>x,x-y,z+1/2</operator>
</sg_sym_op>
<sg_sym_op>
<seq>10</seq>
<operator>-x,-x+y,-z+1/2</operator>
</sg_sym_op>
<sg_sym_op>
<seq>11</seq>
<operator>-x+y,y,z+1/2</operator>
</sg_sym_op>
<sg_sym_op>
<seq>12</seq>
<operator>x-y,-y,-z+1/2</operator>
</sg_sym_op>
</sg_sym_ops>
<idp_column>IDP</idp_column>
<adp_column>ADP</adp_column>
<atomic_coords>
<atomic_coord>
<atom>O</atom>
<num>1</num>
<wyckoff>18e</wyckoff>
<symmetry>.2</symmetry>
<x>0.30618</x>
<y>0.0</y>
<z>0.25</z>
<sof>1.0</sof>
<aet>4-a</aet>
</atomic_coord>
<atomic_coord>
<atom>V</atom>
<num>2</num>
<wyckoff>12c</wyckoff>
<symmetry>3.</symmetry>
<x>0.0</x>
<y>0.0</y>
<z>0.14783</z>
<sof>1.0</sof>
<aet>6-a</aet>
</atomic_coord>
</atomic_coords>
<ani_temp_facs/>
<ac_space_group>R-3cH (167)</ac_space_group>
<ac_unit_cell_a>4.954</ac_unit_cell_a>
<ac_unit_cell_b>4.954</ac_unit_cell_b>
<ac_unit_cell_c>14.01</ac_unit_cell_c>
<ac_unit_cell_alpha>90</ac_unit_cell_alpha>
<ac_unit_cell_beta>90</ac_unit_cell_beta>
<ac_unit_cell_gamma>120</ac_unit_cell_gamma>
<subfile_indicator>Common Phase, Educational Pattern, Inorganic, Metal &amp; Alloy, Mineral Related (Mineral, Synthetic), NBS Pattern</subfile_indicator>
<cross_ref_pdf_numbers>00-001-1293 (Deleted), 00-026-0278 (Deleted), 01-071-0280 (Alternate), 01-074-0325 (Alternate), 04-001-7458 (Alternate), 04-001-7656 (Alternate), 04-001-7989 (Alternate), 04-001-9277 (Alternate), 04-002-0455 (Alternate), 04-002-2982 (Alternate), 04-002-2996 (Alternate), 04-002-2998 (Alternate), 04-002-3005 (Alternate), 04-002-4911 (Alternate), 04-002-5307 (Alternate), 04-002-6325 (Alternate), 04-002-9108 (Alternate), 04-003-1779 (Alternate), 04-003-5894 (Alternate), 04-004-2833 (Primary), 04-004-5102 (Alternate), 04-004-8983 (Alternate), 04-005-4649 (Alternate), 04-005-5138 (Alternate), 04-005-8095 (Alternate), 04-006-5885 (Alternate), 04-006-8178 (Alternate), 04-008-0678 (Alternate), 04-008-4036 (Alternate), 04-008-7632 (Alternate), 04-008-7633 (Alternate), 04-008-8430 (Alternate), 04-008-8431 (Alternate), 04-008-8432 (Alternate)</cross_ref_pdf_numbers>
<references>
<reference_group>
<type>Primary Reference</type>
<reference>Natl. Bur. Stand. (U. S. ) Monogr. 25 1984, 20, 108.</reference>
</reference_group>
<reference_group>
<type>Crystal Structure</type>
<reference>Crystal Structure Source: LPF.</reference>
</reference_group>
</references>
<database_comments>Additional Patterns: To replace 00-001-1293 and 00-026-0278. See PDF 01-074-0325, 01-074-2037, 01-071-0280, 01-071-0343 and 01-084-0316. Melting Point: 2243 K. Sample Preparation: The sample was prepared at NBS, Gaithersburg, Maryland, USA, by reducing ''V2 O5'' at ''P O2'' &lt;10-20 atmospheres. It was then heated at 600 C for 8 hours, at 925 C for 18 hours, and at 900 C for 30 hours with intermittent grinding. Unit Cell Data Source: Powder Diffraction.</database_comments>
<crystal_properties>Centrosymmetric</crystal_properties>
</pdf_data>
<graphs>
<wave_length>Cu Kα1 1.54056 Å</wave_length>
<chart_name>PDF Card - 00-034-0187.jpg</chart_name>
<stick_series type="V2 O3 - 00-034-0187 (Stick, Fixed Slit Intensity)">
<intensity>
<theta>24.313</theta>
<da>3.65779</da>
<intensity>71</intensity>
<h>0</h>
<k>1</k>
<l>2</l>
<F/>
</intensity>
<intensity>
<theta>32.986</theta>
<da>2.71321</da>
<intensity>100</intensity>
<h>1</h>
<k>0</k>
<l>4</l>
<F/>
</intensity>
<intensity>
<theta>36.230</theta>
<da>2.47738</da>
<intensity>80</intensity>
<h>1</h>
<k>1</k>
<l>0</l>
<F/>
</intensity>
<intensity>
<theta>38.513</theta>
<da>2.33561</da>
<intensity>6</intensity>
<h>0</h>
<k>0</k>
<l>6</l>
<F/>
</intensity>
<intensity>
<theta>41.215</theta>
<da>2.18852</da>
<intensity>36</intensity>
<h>1</h>
<k>1</k>
<l>3</l>
<F/>
</intensity>
<intensity>
<theta>44.098</theta>
<da>2.05190</da>
<intensity>7</intensity>
<h>2</h>
<k>0</k>
<l>2</l>
<F/>
</intensity>
<intensity>
<theta>49.810</theta>
<da>1.82916</da>
<intensity>34</intensity>
<h>0</h>
<k>2</k>
<l>4</l>
<F/>
</intensity>
<intensity>
<theta>53.922</theta>
<da>1.69897</da>
<intensity>85</intensity>
<h>1</h>
<k>1</k>
<l>6</l>
<F/>
</intensity>
<intensity>
<theta>56.744</theta>
<da>1.62099</da>
<intensity>1</intensity>
<h>0</h>
<k>1</k>
<l>8</l>
<F/>
</intensity>
<intensity>
<theta>58.365</theta>
<da>1.57977</da>
<intensity>7</intensity>
<h>1</h>
<k>2</k>
<l>2</l>
<F/>
</intensity>
<intensity>
<theta>63.113</theta>
<da>1.47185</da>
<intensity>24</intensity>
<h>2</h>
<k>1</k>
<l>4</l>
<F/>
</intensity>
<intensity>
<theta>65.193</theta>
<da>1.42983</da>
<intensity>31</intensity>
<h>3</h>
<k>0</k>
<l>0</l>
<F/>
</intensity>
<intensity>
<theta>70.686</theta>
<da>1.33158</da>
<intensity>14</intensity>
<h>1</h>
<k>0</k>
<l>10</l>
<F/>
</intensity>
<intensity>
<theta>71.525</theta>
<da>1.31801</da>
<intensity>3</intensity>
<h>1</h>
<k>1</k>
<l>9</l>
<F/>
</intensity>
<intensity>
<theta>76.914</theta>
<da>1.23854</da>
<intensity>6</intensity>
<h>2</h>
<k>2</k>
<l>0</l>
<F/>
</intensity>
<intensity>
<theta>78.355</theta>
<da>1.21933</da>
<intensity>4</intensity>
<h>3</h>
<k>0</k>
<l>6</l>
<F/>
</intensity>
<intensity>
<theta>80.089</theta>
<da>1.19723</da>
<intensity>1</intensity>
<h>2</h>
<k>2</k>
<l>3</l>
<F/>
</intensity>
<intensity>
<theta>82.111</theta>
<da>1.17279</da>
<intensity>9m</intensity>
<h>0</h>
<k>2</k>
<l>10</l>
<F/>
</intensity>
<intensity>
<theta>82.111</theta>
<da>1.17279</da>
<intensity>9m</intensity>
<h>3</h>
<k>1</k>
<l>2</l>
<F/>
</intensity>
<intensity>
<theta>82.572</theta>
<da>1.16741</da>
<intensity>2</intensity>
<h>0</h>
<k>0</k>
<l>12</l>
<F/>
</intensity>
<intensity>
<theta>86.264</theta>
<da>1.12666</da>
<intensity>4</intensity>
<h>1</h>
<k>3</k>
<l>4</l>
<F/>
</intensity>
<intensity>
<theta>89.512</theta>
<da>1.09401</da>
<intensity>12</intensity>
<h>2</h>
<k>2</k>
<l>6</l>
<F/>
</intensity>
<intensity>
<theta>93.204</theta>
<da>1.06012</da>
<intensity>9m</intensity>
<h>0</h>
<k>4</k>
<l>2</l>
<F/>
</intensity>
<intensity>
<theta>93.204</theta>
<da>1.06012</da>
<intensity>9m</intensity>
<h>2</h>
<k>1</k>
<l>10</l>
<F/>
</intensity>
<intensity>
<theta>93.690</theta>
<da>1.05589</da>
<intensity>3</intensity>
<h>1</h>
<k>1</k>
<l>12</l>
<F/>
</intensity>
<intensity>
<theta>97.377</theta>
<da>1.02549</da>
<intensity>1</intensity>
<h>4</h>
<k>0</k>
<l>4</l>
<F/>
</intensity>
<intensity>
<theta>104.453</theta>
<da>0.97450</da>
<intensity>1m</intensity>
<h>0</h>
<k>1</k>
<l>14</l>
<F/>
</intensity>
<intensity>
<theta>104.453</theta>
<da>0.97450</da>
<intensity>1m</intensity>
<h>2</h>
<k>3</k>
<l>2</l>
<F/>
</intensity>
<intensity>
<theta>105.291</theta>
<da>0.96903</da>
<intensity>&lt;1</intensity>
<h>2</h>
<k>2</k>
<l>9</l>
<F/>
</intensity>
<intensity>
<theta>108.755</theta>
<da>0.94760</da>
<intensity>8</intensity>
<h>3</h>
<k>2</k>
<l>4</l>
<F/>
</intensity>
<intensity>
<theta>110.707</theta>
<da>0.93631</da>
<intensity>4</intensity>
<h>4</h>
<k>1</k>
<l>0</l>
<F/>
</intensity>
<intensity>
<theta>116.303</theta>
<da>0.90680</da>
<intensity>4m</intensity>
<h>1</h>
<k>3</k>
<l>10</l>
<F/>
</intensity>
<intensity>
<theta>116.303</theta>
<da>0.90680</da>
<intensity>4m</intensity>
<h>2</h>
<k>0</k>
<l>14</l>
<F/>
</intensity>
<intensity>
<theta>116.795</theta>
<da>0.90440</da>
<intensity>5</intensity>
<h>3</h>
<k>0</k>
<l>12</l>
<F/>
</intensity>
<intensity>
<theta>124.868</theta>
<da>0.86892</da>
<intensity>5</intensity>
<h>4</h>
<k>1</k>
<l>6</l>
<F/>
</intensity>
</stick_series>
</graphs>
</pdfcard>
